{"Data":[{"MaterialID":16,"MaterialCode":"317","MaterialName":"KEPEK 14","NetStock":326326.000,"Effective":"2026-03-24T11:28:10.5152987"},{"MaterialID":6,"MaterialCode":"16","MaterialName":"MELAS 10","NetStock":131557.471,"Effective":"2026-03-24T11:45:58.6931426"},{"MaterialID":9,"MaterialCode":"10","MaterialName":"D.D.G.S. 27","NetStock":85612.000,"Effective":"2026-03-24T10:51:09.838079"},{"MaterialID":17,"MaterialCode":"6","MaterialName":"MISIR 58","NetStock":67758.000,"Effective":"2026-03-24T11:28:10.5347209"},{"MaterialID":8,"MaterialCode":"3","MaterialName":"AYÇİÇEK KÜSPESİ 34-36 (K)","NetStock":59974.000,"Effective":"2026-03-24T11:28:10.530376"},{"MaterialID":296,"MaterialCode":"419","MaterialName":"ŞEKERPANCARI POSASI","NetStock":59222.000,"Effective":"2026-03-24T11:28:10.551055"},{"MaterialID":40,"MaterialCode":"12","MaterialName":"SOYA FASÜLYESİ KÜSPESİ 44-46","NetStock":50866.000,"Effective":"2026-03-24T11:28:10.5608939"},{"MaterialID":265,"MaterialCode":"409","MaterialName":"SOYCHLOR","NetStock":37256.000,"Effective":"2026-03-23T05:55:52"},{"MaterialID":12,"MaterialCode":"33","MaterialName":"TUZ","NetStock":37077.700,"Effective":"2026-03-24T11:25:49.9860664"},{"MaterialID":33,"MaterialCode":"20","MaterialName":"MISIR GLUTENİ 60","NetStock":31686.000,"Effective":"2026-03-24T10:51:09.8727585"},{"MaterialID":10,"MaterialCode":"200","MaterialName":"MISIR KEPEĞİ 19","NetStock":29732.000,"Effective":"2026-03-24T11:28:10.5581734"},{"MaterialID":18,"MaterialCode":"5","MaterialName":"BUĞDAY KIRIĞI 12.5 (K)","NetStock":21350.000,"Effective":"2026-03-24T10:42:11.9284867"},{"MaterialID":3,"MaterialCode":"26","MaterialName":"KEPEK TOZ YERLİ","NetStock":19686.000,"Effective":"2026-03-24T11:28:10.5635433"},{"MaterialID":4,"MaterialCode":"215","MaterialName":"AYÇİÇEK KABUĞU 6","NetStock":15320.000,"Effective":"2026-03-24T10:51:09.87697"},{"MaterialID":20,"MaterialCode":"270","MaterialName":"MgO","NetStock":14958.100,"Effective":"2026-03-24T11:25:49.9733305"},{"MaterialID":106,"MaterialCode":"325","MaterialName":"BULGUR KEPEĞİ","NetStock":13296.000,"Effective":"2026-03-24T11:28:10.5387898"},{"MaterialID":5,"MaterialCode":"19","MaterialName":"MERMER TOZU","NetStock":11774.000,"Effective":"2026-03-24T11:28:10.5552351"},{"MaterialID":105,"MaterialCode":"1","MaterialName":"ARPA 10","NetStock":7680.000,"Effective":"2026-03-24T11:28:10.5250349"},{"MaterialID":41,"MaterialCode":"40","MaterialName":"FULFET TAM YAĞLI SOYA","NetStock":5998.000,"Effective":"2026-03-18T22:43:27.5066867"},{"MaterialID":61,"MaterialCode":"14","MaterialName":"BYPASS YAĞ","NetStock":5188.700,"Effective":"2026-03-23T14:38:19.1223724"},{"MaterialID":14,"MaterialCode":"343","MaterialName":"SÜT PİREMİKSİ ROVİMİX","NetStock":4744.100,"Effective":"2026-03-24T10:40:37.4155435"},{"MaterialID":62,"MaterialCode":"86","MaterialName":"RUMENSMART DRY","NetStock":3994.000,"Effective":"2026-03-18T22:35:57.9223502"},{"MaterialID":264,"MaterialCode":"408","MaterialName":"BENTONİT","NetStock":3595.000,"Effective":"2026-03-18T07:20:40"},{"MaterialID":22,"MaterialCode":"88","MaterialName":"BESİ PREMİKS","NetStock":2862.600,"Effective":"2026-03-24T02:25:32.6937924"},{"MaterialID":38,"MaterialCode":"98","MaterialName":"YEA SACC","NetStock":2693.800,"Effective":"2026-03-23T11:24:23.3583345"},{"MaterialID":259,"MaterialCode":"30","MaterialName":"TOKSİN BAĞLAYICI","NetStock":1873.000,"Effective":"2026-03-18T07:20:04"},{"MaterialID":43,"MaterialCode":"27","MaterialName":"KUZU BUZAĞI PREMİX","NetStock":1796.300,"Effective":"2026-03-24T11:25:50.0001358"},{"MaterialID":34,"MaterialCode":"87","MaterialName":"CAPCİCUM","NetStock":1688.800,"Effective":"2026-03-24T10:40:37.4096435"},{"MaterialID":267,"MaterialCode":"410","MaterialName":"PHİX-UP","NetStock":1597.000,"Effective":"2026-03-24T11:25:49.9945007"},{"MaterialID":24,"MaterialCode":"258","MaterialName":"ACİD BUFF","NetStock":1200.800,"Effective":"2026-03-04T17:30:26.0429351"},{"MaterialID":263,"MaterialCode":"407","MaterialName":"DSM HY-D","NetStock":998.000,"Effective":"2026-03-06T11:45:48.9271907"},{"MaterialID":260,"MaterialCode":"36","MaterialName":"DCP","NetStock":950.000,"Effective":"2025-12-10T12:10:23.5599173"},{"MaterialID":37,"MaterialCode":"70","MaterialName":"DSM CRİNA","NetStock":707.800,"Effective":"2026-03-24T10:40:37.4029131"},{"MaterialID":269,"MaterialCode":"411","MaterialName":"HEPAFORCE","NetStock":475.000,"Effective":"2026-03-10T07:31:21"},{"MaterialID":258,"MaterialCode":"18","MaterialName":"ETİ SODA","NetStock":425.000,"Effective":"2026-03-09T09:28:58.9857682"},{"MaterialID":273,"MaterialCode":"413","MaterialName":"MEGABIND-PELET BAĞLAYICI","NetStock":357.000,"Effective":"2026-03-16T06:54:37"},{"MaterialID":261,"MaterialCode":"79","MaterialName":"AROMA","NetStock":165.000,"Effective":"2026-03-03T11:08:09.8836104"},{"MaterialID":262,"MaterialCode":"406","MaterialName":"DSM RUMİSTAR","NetStock":100.000,"Effective":"2025-12-10T12:13:14.5912827"},{"MaterialID":11,"MaterialCode":"331","MaterialName":"MKY","NetStock":0.000,"Effective":"2025-12-08T00:00:00"},{"MaterialID":19,"MaterialCode":"77","MaterialName":"SORGUM 11 PRT","NetStock":0.000,"Effective":"2025-12-12T09:08:00.2743421"},{"MaterialID":7,"MaterialCode":"311","MaterialName":"MISIR TOZ 34N 12S","NetStock":0.000,"Effective":"2026-03-24T10:12:19.7511974"},{"MaterialID":275,"MaterialCode":"320","MaterialName":"ŞEKERPANCARI KÜSPESİ","NetStock":0.000,"Effective":"2026-03-03T09:13:29.737237"},{"MaterialID":276,"MaterialCode":"25","MaterialName":"MERCİMEK ELEK ALTI/KIRIĞI 22","NetStock":0.000,"Effective":"2026-03-04T00:00:00"},{"MaterialID":287,"MaterialCode":"403","MaterialName":"BULGUR","NetStock":0.000,"Effective":"2026-03-13T00:00:00"},{"MaterialID":266,"MaterialCode":"401","MaterialName":"KARIŞIM","NetStock":0.000,"Effective":"2026-03-16T00:00:00"},{"MaterialID":21,"MaterialCode":"326","MaterialName":"NPN SÜLFAT","NetStock":-0.050,"Effective":"2026-03-24T00:19:17.8545874"}],"Message":null,"Success":true}
